V -t * -v 1.0a5 -a 0
W -t * -x 1000 -y 1000
A -t * -n 1 -p 0 -o 0xffffffff -c 31 -a 1
A -t * -h 1 -m 2147483647 -s 0
+ -t 0.000000000 -s 5 -d -1 -p cbr -e 70 -c 2 -a 0 -i 0 -k AGT 
- -t 0.000000000 -s 5 -d -1 -p cbr -e 70 -c 2 -a 0 -i 0 -k AGT
h -t 0.000000000 -s 5 -d -1 -p cbr -e 70 -c 2 -a 0 -i 0 -k AGT
+ -t 0.000000000 -s 5 -d -1 -p AODV -e 116 -c 2 -a 0 -i 0 -k RTR 
- -t 0.000000000 -s 5 -d -1 -p AODV -e 116 -c 2 -a 0 -i 0 -k RTR
h -t 0.000000000 -s 5 -d -1 -p AODV -e 116 -c 2 -a 0 -i 0 -k RTR
r -t 0.001952565 -s 2 -d -1 -p AODV -e 116 -c 2 -a 0 -i 0 -k RTR
r -t 0.001952580 -s 50 -d -1 -p AODV -e 116 -c 2 -a 0 -i 0 -k RTR
r -t 0.001952628 -s 3 -d -1 -p AODV -e 116 -c 2 -a 0 -i 0 -k RTR
r -t 0.001952691 -s 35 -d -1 -p AODV -e 116 -c 2 -a 0 -i 0 -k RTR
r -t 0.001952757 -s 30 -d -1 -p AODV -e 116 -c 2 -a 0 -i 0 -k RTR
+ -t 0.002094611 -s 2 -d -1 -p AODV -e 116 -c 2 -a 0 -i 0 -k RTR 
- -t 0.002094611 -s 2 -d -1 -p AODV -e 116 -c 2 -a 0 -i 0 -k RTR
h -t 0.002094611 -s 2 -d -1 -p AODV -e 116 -c 2 -a 0 -i 0 -k RTR
+ -t 0.002833806 -s 50 -d -1 -p AODV -e 116 -c 2 -a 0 -i 0 -k RTR 
- -t 0.002833806 -s 50 -d -1 -p AODV -e 116 -c 2 -a 0 -i 0 -k RTR
h -t 0.002833806 -s 50 -d -1 -p AODV -e 116 -c 2 -a 0 -i 0 -k RTR
r -t 0.003786833 -s 35 -d -1 -p AODV -e 116 -c 2 -a 0 -i 0 -k RTR
r -t 0.003786924 -s 50 -d -1 -p AODV -e 116 -c 2 -a 0 -i 0 -k RTR
r -t 0.003786958 -s 3 -d -1 -p AODV -e 116 -c 2 -a 0 -i 0 -k RTR
r -t 0.003787041 -s 30 -d -1 -p AODV -e 116 -c 2 -a 0 -i 0 -k RTR
r -t 0.003787139 -s 55 -d -1 -p AODV -e 116 -c 2 -a 0 -i 0 -k RTR
r -t 0.003787176 -s 5 -d -1 -p AODV -e 116 -c 2 -a 0 -i 0 -k RTR
r -t 0.003787221 -s 53 -d -1 -p AODV -e 116 -c 2 -a 0 -i 0 -k RTR
r -t 0.003787276 -s 45 -d -1 -p AODV -e 116 -c 2 -a 0 -i 0 -k RTR
r -t 0.003787277 -s 46 -d -1 -p AODV -e 116 -c 2 -a 0 -i 0 -k RTR
r -t 0.003787362 -s 32 -d -1 -p AODV -e 116 -c 2 -a 0 -i 0 -k RTR
r -t 0.003787364 -s 20 -d -1 -p AODV -e 116 -c 2 -a 0 -i 0 -k RTR
+ -t 0.004215223 -s 46 -d -1 -p AODV -e 116 -c 2 -a 0 -i 0 -k RTR 
- -t 0.004215223 -s 46 -d -1 -p AODV -e 116 -c 2 -a 0 -i 0 -k RTR
h -t 0.004215223 -s 46 -d -1 -p AODV -e 116 -c 2 -a 0 -i 0 -k RTR
+ -t 0.004925447 -s 20 -d -1 -p AODV -e 116 -c 2 -a 0 -i 0 -k RTR 
- -t 0.004925447 -s 20 -d -1 -p AODV -e 116 -c 2 -a 0 -i 0 -k RTR
h -t 0.004925447 -s 20 -d -1 -p AODV -e 116 -c 2 -a 0 -i 0 -k RTR
+ -t 0.005082374 -s 30 -d -1 -p AODV -e 116 -c 2 -a 0 -i 0 -k RTR 
- -t 0.005082374 -s 30 -d -1 -p AODV -e 116 -c 2 -a 0 -i 0 -k RTR
h -t 0.005082374 -s 30 -d -1 -p AODV -e 116 -c 2 -a 0 -i 0 -k RTR
+ -t 0.005428730 -s 45 -d -1 -p AODV -e 116 -c 2 -a 0 -i 0 -k RTR 
- -t 0.005428730 -s 45 -d -1 -p AODV -e 116 -c 2 -a 0 -i 0 -k RTR
h -t 0.005428730 -s 45 -d -1 -p AODV -e 116 -c 2 -a 0 -i 0 -k RTR
r -t 0.005469121 -s 35 -d -1 -p AODV -e 116 -c 2 -a 0 -i 0 -k RTR
r -t 0.005469236 -s 2 -d -1 -p AODV -e 116 -c 2 -a 0 -i 0 -k RTR
r -t 0.005469253 -s 53 -d -1 -p AODV -e 116 -c 2 -a 0 -i 0 -k RTR
r -t 0.005469356 -s 46 -d -1 -p AODV -e 116 -c 2 -a 0 -i 0 -k RTR
r -t 0.005469503 -s 5 -d -1 -p AODV -e 116 -c 2 -a 0 -i 0 -k RTR
r -t 0.005469572 -s 3 -d -1 -p AODV -e 116 -c 2 -a 0 -i 0 -k RTR
r -t 0.005469627 -s 20 -d -1 -p AODV -e 116 -c 2 -a 0 -i 0 -k RTR
r -t 0.005469646 -s 32 -d -1 -p AODV -e 116 -c 2 -a 0 -i 0 -k RTR
r -t 0.005469665 -s 30 -d -1 -p AODV -e 116 -c 2 -a 0 -i 0 -k RTR
r -t 0.005469725 -s 8 -d -1 -p AODV -e 116 -c 2 -a 0 -i 0 -k RTR
+ -t 0.005469725 -s 8 -d 50 -p AODV -e 48 -c 2 -a 0 -i 0 -k RTR 
- -t 0.005469725 -s 8 -d 50 -p AODV -e 48 -c 2 -a 0 -i 0 -k RTR
h -t 0.005469725 -s 8 -d 50 -p AODV -e 48 -c 2 -a 0 -i 0 -k RTR
r -t 0.005469729 -s 26 -d -1 -p AODV -e 116 -c 2 -a 0 -i 0 -k RTR
r -t 0.005469746 -s 45 -d -1 -p AODV -e 116 -c 2 -a 0 -i 0 -k RTR
r -t 0.005469752 -s 55 -d -1 -p AODV -e 116 -c 2 -a 0 -i 0 -k RTR
+ -t 0.006364361 -s 3 -d -1 -p AODV -e 116 -c 2 -a 0 -i 0 -k RTR 
- -t 0.006364361 -s 3 -d -1 -p AODV -e 116 -c 2 -a 0 -i 0 -k RTR
h -t 0.006364361 -s 3 -d -1 -p AODV -e 116 -c 2 -a 0 -i 0 -k RTR
+ -t 0.006877929 -s 55 -d -1 -p AODV -e 116 -c 2 -a 0 -i 0 -k RTR 
- -t 0.006877929 -s 55 -d -1 -p AODV -e 116 -c 2 -a 0 -i 0 -k RTR
h -t 0.006877929 -s 55 -d -1 -p AODV -e 116 -c 2 -a 0 -i 0 -k RTR
r -t 0.007071680 -s 32 -d -1 -p AODV -e 116 -c 2 -a 0 -i 0 -k RTR
r -t 0.007071768 -s 8 -d -1 -p AODV -e 116 -c 2 -a 0 -i 0 -k RTR
+ -t 0.007071768 -s 8 -d 20 -p AODV -e 48 -c 2 -a 0 -i 0 -k RTR 
- -t 0.007071768 -s 8 -d 20 -p AODV -e 48 -c 2 -a 0 -i 0 -k RTR
h -t 0.007071768 -s 8 -d 20 -p AODV -e 48 -c 2 -a 0 -i 0 -k RTR
r -t 0.007071927 -s 41 -d -1 -p AODV -e 116 -c 2 -a 0 -i 0 -k RTR
r -t 0.007072089 -s 46 -d -1 -p AODV -e 116 -c 2 -a 0 -i 0 -k RTR
r -t 0.007072124 -s 45 -d -1 -p AODV -e 116 -c 2 -a 0 -i 0 -k RTR
r -t 0.007072199 -s 35 -d -1 -p AODV -e 116 -c 2 -a 0 -i 0 -k RTR
r -t 0.007072218 -s 53 -d -1 -p AODV -e 116 -c 2 -a 0 -i 0 -k RTR
r -t 0.007072222 -s 56 -d -1 -p AODV -e 116 -c 2 -a 0 -i 0 -k RTR
r -t 0.007072331 -s 50 -d -1 -p AODV -e 116 -c 2 -a 0 -i 0 -k RTR
r -t 0.007072380 -s 2 -d -1 -p AODV -e 116 -c 2 -a 0 -i 0 -k RTR
r -t 0.007072416 -s 58 -d -1 -p AODV -e 116 -c 2 -a 0 -i 0 -k RTR
r -t 0.007072436 -s 1 -d -1 -p AODV -e 116 -c 2 -a 0 -i 0 -k RTR
r -t 0.008594240 -s 53 -d -1 -p AODV -e 116 -c 2 -a 0 -i 0 -k RTR
r -t 0.008594521 -s 50 -d -1 -p AODV -e 116 -c 2 -a 0 -i 0 -k RTR
r -t 0.008594535 -s 35 -d -1 -p AODV -e 116 -c 2 -a 0 -i 0 -k RTR
r -t 0.008594550 -s 20 -d -1 -p AODV -e 116 -c 2 -a 0 -i 0 -k RTR
r -t 0.008594579 -s 8 -d -1 -p AODV -e 116 -c 2 -a 0 -i 0 -k RTR
+ -t 0.008594579 -s 8 -d 46 -p AODV -e 48 -c 2 -a 0 -i 0 -k RTR 
- -t 0.008594579 -s 8 -d 46 -p AODV -e 48 -c 2 -a 0 -i 0 -k RTR
h -t 0.008594579 -s 8 -d 46 -p AODV -e 48 -c 2 -a 0 -i 0 -k RTR
r -t 0.008594594 -s 32 -d -1 -p AODV -e 116 -c 2 -a 0 -i 0 -k RTR
r -t 0.008594625 -s 26 -d -1 -p AODV -e 116 -c 2 -a 0 -i 0 -k RTR
r -t 0.008594667 -s 16 -d -1 -p AODV -e 116 -c 2 -a 0 -i 0 -k RTR
r -t 0.008594689 -s 7 -d -1 -p AODV -e 116 -c 2 -a 0 -i 0 -k RTR
r -t 0.008594754 -s 2 -d -1 -p AODV -e 116 -c 2 -a 0 -i 0 -k RTR
r -t 0.008594806 -s 41 -d -1 -p AODV -e 116 -c 2 -a 0 -i 0 -k RTR
r -t 0.008594857 -s 47 -d -1 -p AODV -e 116 -c 2 -a 0 -i 0 -k RTR
r -t 0.008594858 -s 56 -d -1 -p AODV -e 116 -c 2 -a 0 -i 0 -k RTR
+ -t 0.008957139 -s 26 -d -1 -p AODV -e 116 -c 2 -a 0 -i 0 -k RTR 
- -t 0.008957139 -s 26 -d -1 -p AODV -e 116 -c 2 -a 0 -i 0 -k RTR
h -t 0.008957139 -s 26 -d -1 -p AODV -e 116 -c 2 -a 0 -i 0 -k RTR
+ -t 0.009944245 -s 35 -d -1 -p AODV -e 116 -c 2 -a 0 -i 0 -k RTR 
- -t 0.009944245 -s 35 -d -1 -p AODV -e 116 -c 2 -a 0 -i 0 -k RTR
h -t 0.009944245 -s 35 -d -1 -p AODV -e 116 -c 2 -a 0 -i 0 -k RTR
+ -t 0.010188038 -s 32 -d -1 -p AODV -e 116 -c 2 -a 0 -i 0 -k RTR 
- -t 0.010188038 -s 32 -d -1 -p AODV -e 116 -c 2 -a 0 -i 0 -k RTR
h -t 0.010188038 -s 32 -d -1 -p AODV -e 116 -c 2 -a 0 -i 0 -k RTR
+ -t 0.010766261 -s 16 -d -1 -p AODV -e 116 -c 2 -a 0 -i 0 -k RTR 
- -t 0.010766261 -s 16 -d -1 -p AODV -e 116 -c 2 -a 0 -i 0 -k RTR
h -t 0.010766261 -s 16 -d -1 -p AODV -e 116 -c 2 -a 0 -i 0 -k RTR
+ -t 0.011006945 -s 7 -d -1 -p AODV -e 116 -c 2 -a 0 -i 0 -k RTR 
- -t 0.011006945 -s 7 -d -1 -p AODV -e 116 -c 2 -a 0 -i 0 -k RTR
h -t 0.011006945 -s 7 -d -1 -p AODV -e 116 -c 2 -a 0 -i 0 -k RTR
+ -t 0.012150456 -s 53 -d -1 -p AODV -e 116 -c 2 -a 0 -i 0 -k RTR 
- -t 0.012150456 -s 53 -d -1 -p AODV -e 116 -c 2 -a 0 -i 0 -k RTR
h -t 0.012150456 -s 53 -d -1 -p AODV -e 116 -c 2 -a 0 -i 0 -k RTR
r -t 0.012626852 -s 32 -d -1 -p AODV -e 116 -c 2 -a 0 -i 0 -k RTR
r -t 0.012626899 -s 20 -d -1 -p AODV -e 116 -c 2 -a 0 -i 0 -k RTR
r -t 0.012626935 -s 55 -d -1 -p AODV -e 116 -c 2 -a 0 -i 0 -k RTR
r -t 0.012627017 -s 41 -d -1 -p AODV -e 116 -c 2 -a 0 -i 0 -k RTR
r -t 0.012627019 -s 8 -d -1 -p AODV -e 116 -c 2 -a 0 -i 0 -k RTR
+ -t 0.012627019 -s 8 -d 45 -p AODV -e 48 -c 2 -a 0 -i 0 -k RTR 
- -t 0.012627019 -s 8 -d 45 -p AODV -e 48 -c 2 -a 0 -i 0 -k RTR
h -t 0.012627019 -s 8 -d 45 -p AODV -e 48 -c 2 -a 0 -i 0 -k RTR
r -t 0.012627028 -s 35 -d -1 -p AODV -e 116 -c 2 -a 0 -i 0 -k RTR
r -t 0.012627067 -s 2 -d -1 -p AODV -e 116 -c 2 -a 0 -i 0 -k RTR
r -t 0.012627098 -s 30 -d -1 -p AODV -e 116 -c 2 -a 0 -i 0 -k RTR
r -t 0.012627154 -s 3 -d -1 -p AODV -e 116 -c 2 -a 0 -i 0 -k RTR
r -t 0.012627183 -s 17 -d -1 -p AODV -e 116 -c 2 -a 0 -i 0 -k RTR
r -t 0.012627225 -s 50 -d -1 -p AODV -e 116 -c 2 -a 0 -i 0 -k RTR
+ -t 0.013994995 -s 41 -d -1 -p AODV -e 116 -c 2 -a 0 -i 0 -k RTR 
- -t 0.013994995 -s 41 -d -1 -p AODV -e 116 -c 2 -a 0 -i 0 -k RTR
h -t 0.013994995 -s 41 -d -1 -p AODV -e 116 -c 2 -a 0 -i 0 -k RTR
r -t 0.014089284 -s 30 -d -1 -p AODV -e 116 -c 2 -a 0 -i 0 -k RTR
r -t 0.014089492 -s 55 -d -1 -p AODV -e 116 -c 2 -a 0 -i 0 -k RTR
r -t 0.014089500 -s 2 -d -1 -p AODV -e 116 -c 2 -a 0 -i 0 -k RTR
r -t 0.014089714 -s 35 -d -1 -p AODV -e 116 -c 2 -a 0 -i 0 -k RTR
r -t 0.014089782 -s 5 -d -1 -p AODV -e 116 -c 2 -a 0 -i 0 -k RTR
r -t 0.014089803 -s 50 -d -1 -p AODV -e 116 -c 2 -a 0 -i 0 -k RTR
r -t 0.014089905 -s 45 -d -1 -p AODV -e 116 -c 2 -a 0 -i 0 -k RTR
r -t 0.015631912 -s 50 -d -1 -p AODV -e 116 -c 2 -a 0 -i 0 -k RTR
r -t 0.015631936 -s 2 -d -1 -p AODV -e 116 -c 2 -a 0 -i 0 -k RTR
r -t 0.015632122 -s 53 -d -1 -p AODV -e 116 -c 2 -a 0 -i 0 -k RTR
r -t 0.015632161 -s 46 -d -1 -p AODV -e 116 -c 2 -a 0 -i 0 -k RTR
r -t 0.015632275 -s 3 -d -1 -p AODV -e 116 -c 2 -a 0 -i 0 -k RTR
r -t 0.015632286 -s 20 -d -1 -p AODV -e 116 -c 2 -a 0 -i 0 -k RTR
r -t 0.015632294 -s 32 -d -1 -p AODV -e 116 -c 2 -a 0 -i 0 -k RTR
r -t 0.015632340 -s 45 -d -1 -p AODV -e 116 -c 2 -a 0 -i 0 -k RTR
r -t 0.015632341 -s 30 -d -1 -p AODV -e 116 -c 2 -a 0 -i 0 -k RTR
r -t 0.015632386 -s 55 -d -1 -p AODV -e 116 -c 2 -a 0 -i 0 -k RTR
r -t 0.015632404 -s 8 -d -1 -p AODV -e 116 -c 2 -a 0 -i 0 -k RTR
+ -t 0.015632404 -s 8 -d 35 -p AODV -e 48 -c 2 -a 0 -i 0 -k RTR 
- -t 0.015632404 -s 8 -d 35 -p AODV -e 48 -c 2 -a 0 -i 0 -k RTR
h -t 0.015632404 -s 8 -d 35 -p AODV -e 48 -c 2 -a 0 -i 0 -k RTR
r -t 0.015632405 -s 5 -d -1 -p AODV -e 116 -c 2 -a 0 -i 0 -k RTR
+ -t 0.015693109 -s 1 -d -1 -p AODV -e 116 -c 2 -a 0 -i 0 -k RTR 
- -t 0.015693109 -s 1 -d -1 -p AODV -e 116 -c 2 -a 0 -i 0 -k RTR
h -t 0.015693109 -s 1 -d -1 -p AODV -e 116 -c 2 -a 0 -i 0 -k RTR
+ -t 0.017105923 -s 47 -d -1 -p AODV -e 116 -c 2 -a 0 -i 0 -k RTR 
- -t 0.017105923 -s 47 -d -1 -p AODV -e 116 -c 2 -a 0 -i 0 -k RTR
h -t 0.017105923 -s 47 -d -1 -p AODV -e 116 -c 2 -a 0 -i 0 -k RTR
r -t 0.017114346 -s 20 -d -1 -p AODV -e 116 -c 2 -a 0 -i 0 -k RTR
r -t 0.017114466 -s 8 -d -1 -p AODV -e 116 -c 2 -a 0 -i 0 -k RTR
+ -t 0.017114466 -s 8 -d 32 -p AODV -e 48 -c 2 -a 0 -i 0 -k RTR 
- -t 0.017114466 -s 8 -d 32 -p AODV -e 48 -c 2 -a 0 -i 0 -k RTR
h -t 0.017114466 -s 8 -d 32 -p AODV -e 48 -c 2 -a 0 -i 0 -k RTR
r -t 0.017114582 -s 41 -d -1 -p AODV -e 116 -c 2 -a 0 -i 0 -k RTR
r -t 0.017114744 -s 45 -d -1 -p AODV -e 116 -c 2 -a 0 -i 0 -k RTR
r -t 0.017114799 -s 46 -d -1 -p AODV -e 116 -c 2 -a 0 -i 0 -k RTR
r -t 0.017114873 -s 35 -d -1 -p AODV -e 116 -c 2 -a 0 -i 0 -k RTR
r -t 0.017114917 -s 56 -d -1 -p AODV -e 116 -c 2 -a 0 -i 0 -k RTR
r -t 0.017114923 -s 53 -d -1 -p AODV -e 116 -c 2 -a 0 -i 0 -k RTR
r -t 0.017115017 -s 50 -d -1 -p AODV -e 116 -c 2 -a 0 -i 0 -k RTR
r -t 0.017115044 -s 2 -d -1 -p AODV -e 116 -c 2 -a 0 -i 0 -k RTR
r -t 0.017115070 -s 58 -d -1 -p AODV -e 116 -c 2 -a 0 -i 0 -k RTR
r -t 0.017115088 -s 1 -d -1 -p AODV -e 116 -c 2 -a 0 -i 0 -k RTR
r -t 0.017115106 -s 18 -d -1 -p AODV -e 116 -c 2 -a 0 -i 0 -k RTR
r -t 0.017115117 -s 54 -d -1 -p AODV -e 116 -c 2 -a 0 -i 0 -k RTR
+ -t 0.018346141 -s 18 -d -1 -p AODV -e 116 -c 2 -a 0 -i 0 -k RTR 
- -t 0.018346141 -s 18 -d -1 -p AODV -e 116 -c 2 -a 0 -i 0 -k RTR
h -t 0.018346141 -s 18 -d -1 -p AODV -e 116 -c 2 -a 0 -i 0 -k RTR
r -t 0.021368777 -s 58 -d -1 -p AODV -e 116 -c 2 -a 0 -i 0 -k RTR
r -t 0.021369079 -s 54 -d -1 -p AODV -e 116 -c 2 -a 0 -i 0 -k RTR
r -t 0.021369109 -s 18 -d -1 -p AODV -e 116 -c 2 -a 0 -i 0 -k RTR
r -t 0.021369258 -s 41 -d -1 -p AODV -e 116 -c 2 -a 0 -i 0 -k RTR
r -t 0.021369265 -s 17 -d -1 -p AODV -e 116 -c 2 -a 0 -i 0 -k RTR
r -t 0.021369347 -s 59 -d -1 -p AODV -e 116 -c 2 -a 0 -i 0 -k RTR
r -t 0.021369357 -s 56 -d -1 -p AODV -e 116 -c 2 -a 0 -i 0 -k RTR
r -t 0.021369470 -s 8 -d -1 -p AODV -e 116 -c 2 -a 0 -i 0 -k RTR
+ -t 0.021369470 -s 8 -d 1 -p AODV -e 48 -c 2 -a 0 -i 0 -k RTR 
- -t 0.021369470 -s 8 -d 1 -p AODV -e 48 -c 2 -a 0 -i 0 -k RTR
h -t 0.021369470 -s 8 -d 1 -p AODV -e 48 -c 2 -a 0 -i 0 -k RTR
r -t 0.021369543 -s 32 -d -1 -p AODV -e 116 -c 2 -a 0 -i 0 -k RTR
r -t 0.021369557 -s 20 -d -1 -p AODV -e 116 -c 2 -a 0 -i 0 -k RTR
+ -t 0.021540661 -s 17 -d -1 -p AODV -e 116 -c 2 -a 0 -i 0 -k RTR 
- -t 0.021540661 -s 17 -d -1 -p AODV -e 116 -c 2 -a 0 -i 0 -k RTR
h -t 0.021540661 -s 17 -d -1 -p AODV -e 116 -c 2 -a 0 -i 0 -k RTR
r -t 0.022951145 -s 54 -d -1 -p AODV -e 116 -c 2 -a 0 -i 0 -k RTR
r -t 0.022951268 -s 17 -d -1 -p AODV -e 116 -c 2 -a 0 -i 0 -k RTR
r -t 0.022951469 -s 1 -d -1 -p AODV -e 116 -c 2 -a 0 -i 0 -k RTR
r -t 0.022951488 -s 58 -d -1 -p AODV -e 116 -c 2 -a 0 -i 0 -k RTR
r -t 0.022951674 -s 11 -d -1 -p AODV -e 116 -c 2 -a 0 -i 0 -k RTR
r -t 0.022951699 -s 41 -d -1 -p AODV -e 116 -c 2 -a 0 -i 0 -k RTR
r -t 0.022951747 -s 4 -d -1 -p AODV -e 116 -c 2 -a 0 -i 0 -k RTR
r -t 0.022951799 -s 38 -d -1 -p AODV -e 116 -c 2 -a 0 -i 0 -k RTR
r -t 0.022951820 -s 59 -d -1 -p AODV -e 116 -c 2 -a 0 -i 0 -k RTR
r -t 0.022951861 -s 21 -d -1 -p AODV -e 116 -c 2 -a 0 -i 0 -k RTR
r -t 0.022951870 -s 40 -d -1 -p AODV -e 116 -c 2 -a 0 -i 0 -k RTR
r -t 0.023456964 -s 52 -d -1 -p AODV -e 116 -c 2 -a 0 -i 0 -k RTR
r -t 0.023457051 -s 19 -d -1 -p AODV -e 116 -c 2 -a 0 -i 0 -k RTR
+ -t 0.023801356 -s 54 -d -1 -p AODV -e 116 -c 2 -a 0 -i 0 -k RTR 
- -t 0.023801356 -s 54 -d -1 -p AODV -e 116 -c 2 -a 0 -i 0 -k RTR
h -t 0.023801356 -s 54 -d -1 -p AODV -e 116 -c 2 -a 0 -i 0 -k RTR
r -t 0.024473427 -s 18 -d -1 -p AODV -e 116 -c 2 -a 0 -i 0 -k RTR
r -t 0.024473462 -s 54 -d -1 -p AODV -e 116 -c 2 -a 0 -i 0 -k RTR
r -t 0.024473681 -s 11 -d -1 -p AODV -e 116 -c 2 -a 0 -i 0 -k RTR
r -t 0.024473785 -s 1 -d -1 -p AODV -e 116 -c 2 -a 0 -i 0 -k RTR
r -t 0.024473802 -s 58 -d -1 -p AODV -e 116 -c 2 -a 0 -i 0 -k RTR
r -t 0.024473829 -s 4 -d -1 -p AODV -e 116 -c 2 -a 0 -i 0 -k RTR
r -t 0.024473871 -s 40 -d -1 -p AODV -e 116 -c 2 -a 0 -i 0 -k RTR
r -t 0.024473915 -s 21 -d -1 -p AODV -e 116 -c 2 -a 0 -i 0 -k RTR
r -t 0.024473927 -s 41 -d -1 -p AODV -e 116 -c 2 -a 0 -i 0 -k RTR
r -t 0.024473967 -s 38 -d -1 -p AODV -e 116 -c 2 -a 0 -i 0 -k RTR
r -t 0.024474049 -s 45 -d -1 -p AODV -e 116 -c 2 -a 0 -i 0 -k RTR
r -t 0.024474056 -s 28 -d -1 -p AODV -e 116 -c 2 -a 0 -i 0 -k RTR
r -t 0.024474101 -s 59 -d -1 -p AODV -e 116 -c 2 -a 0 -i 0 -k RTR
+ -t 0.024813816 -s 11 -d -1 -p AODV -e 116 -c 2 -a 0 -i 0 -k RTR 
- -t 0.024813816 -s 11 -d -1 -p AODV -e 116 -c 2 -a 0 -i 0 -k RTR
h -t 0.024813816 -s 11 -d -1 -p AODV -e 116 -c 2 -a 0 -i 0 -k RTR
+ -t 0.024975390 -s 28 -d -1 -p AODV -e 116 -c 2 -a 0 -i 0 -k RTR 
- -t 0.024975390 -s 28 -d -1 -p AODV -e 116 -c 2 -a 0 -i 0 -k RTR
h -t 0.024975390 -s 28 -d -1 -p AODV -e 116 -c 2 -a 0 -i 0 -k RTR
+ -t 0.025019210 -s 40 -d -1 -p AODV -e 116 -c 2 -a 0 -i 0 -k RTR 
- -t 0.025019210 -s 40 -d -1 -p AODV -e 116 -c 2 -a 0 -i 0 -k RTR
h -t 0.025019210 -s 40 -d -1 -p AODV -e 116 -c 2 -a 0 -i 0 -k RTR
+ -t 0.025244243 -s 52 -d -1 -p AODV -e 116 -c 2 -a 0 -i 0 -k RTR 
- -t 0.025244243 -s 52 -d -1 -p AODV -e 116 -c 2 -a 0 -i 0 -k RTR
h -t 0.025244243 -s 52 -d -1 -p AODV -e 116 -c 2 -a 0 -i 0 -k RTR
+ -t 0.025626220 -s 59 -d -1 -p AODV -e 116 -c 2 -a 0 -i 0 -k RTR 
- -t 0.025626220 -s 59 -d -1 -p AODV -e 116 -c 2 -a 0 -i 0 -k RTR
h -t 0.025626220 -s 59 -d -1 -p AODV -e 116 -c 2 -a 0 -i 0 -k RTR
r -t 0.026016155 -s 8 -d -1 -p AODV -e 116 -c 2 -a 0 -i 0 -k RTR
+ -t 0.026016155 -s 8 -d 41 -p AODV -e 48 -c 2 -a 0 -i 0 -k RTR 
- -t 0.026016155 -s 8 -d 41 -p AODV -e 48 -c 2 -a 0 -i 0 -k RTR
h -t 0.026016155 -s 8 -d 41 -p AODV -e 48 -c 2 -a 0 -i 0 -k RTR
r -t 0.026016215 -s 32 -d -1 -p AODV -e 116 -c 2 -a 0 -i 0 -k RTR
r -t 0.026016226 -s 20 -d -1 -p AODV -e 116 -c 2 -a 0 -i 0 -k RTR
r -t 0.026016379 -s 56 -d -1 -p AODV -e 116 -c 2 -a 0 -i 0 -k RTR
r -t 0.026016417 -s 58 -d -1 -p AODV -e 116 -c 2 -a 0 -i 0 -k RTR
r -t 0.026016436 -s 1 -d -1 -p AODV -e 116 -c 2 -a 0 -i 0 -k RTR
r -t 0.026016517 -s 18 -d -1 -p AODV -e 116 -c 2 -a 0 -i 0 -k RTR
r -t 0.026016519 -s 54 -d -1 -p AODV -e 116 -c 2 -a 0 -i 0 -k RTR
r -t 0.026016541 -s 45 -d -1 -p AODV -e 116 -c 2 -a 0 -i 0 -k RTR
r -t 0.026016585 -s 17 -d -1 -p AODV -e 116 -c 2 -a 0 -i 0 -k RTR
r -t 0.026016644 -s 46 -d -1 -p AODV -e 116 -c 2 -a 0 -i 0 -k RTR
r -t 0.027658555 -s 18 -d -1 -p AODV -e 116 -c 2 -a 0 -i 0 -k RTR
r -t 0.027658713 -s 17 -d -1 -p AODV -e 116 -c 2 -a 0 -i 0 -k RTR
r -t 0.027658850 -s 1 -d -1 -p AODV -e 116 -c 2 -a 0 -i 0 -k RTR
r -t 0.027659114 -s 11 -d -1 -p AODV -e 116 -c 2 -a 0 -i 0 -k RTR
r -t 0.027659168 -s 4 -d -1 -p AODV -e 116 -c 2 -a 0 -i 0 -k RTR
r -t 0.027659198 -s 59 -d -1 -p AODV -e 116 -c 2 -a 0 -i 0 -k RTR
r -t 0.027659200 -s 38 -d -1 -p AODV -e 116 -c 2 -a 0 -i 0 -k RTR
r -t 0.027659289 -s 21 -d -1 -p AODV -e 116 -c 2 -a 0 -i 0 -k RTR
r -t 0.028505431 -s 19 -d -1 -p AODV -e 116 -c 2 -a 0 -i 0 -k RTR
r -t 0.028505753 -s 16 -d -1 -p AODV -e 116 -c 2 -a 0 -i 0 -k RTR
r -t 0.028505755 -s 7 -d -1 -p AODV -e 116 -c 2 -a 0 -i 0 -k RTR
r -t 0.028505809 -s 47 -d -1 -p AODV -e 116 -c 2 -a 0 -i 0 -k RTR
r -t 0.028505868 -s 26 -d -1 -p AODV -e 116 -c 2 -a 0 -i 0 -k RTR
r -t 0.029221329 -s 40 -d -1 -p AODV -e 116 -c 2 -a 0 -i 0 -k RTR
r -t 0.029221489 -s 28 -d -1 -p AODV -e 116 -c 2 -a 0 -i 0 -k RTR
r -t 0.029221490 -s 21 -d -1 -p AODV -e 116 -c 2 -a 0 -i 0 -k RTR
r -t 0.029221527 -s 17 -d -1 -p AODV -e 116 -c 2 -a 0 -i 0 -k RTR
r -t 0.029221529 -s 4 -d -1 -p AODV -e 116 -c 2 -a 0 -i 0 -k RTR
r -t 0.029221679 -s 18 -d -1 -p AODV -e 116 -c 2 -a 0 -i 0 -k RTR
r -t 0.029221688 -s 39 -d -1 -p AODV -e 116 -c 2 -a 0 -i 0 -k RTR
r -t 0.029221709 -s 54 -d -1 -p AODV -e 116 -c 2 -a 0 -i 0 -k RTR
r -t 0.029221757 -s 29 -d -1 -p AODV -e 116 -c 2 -a 0 -i 0 -k RTR
r -t 0.029221757 -s 23 -d -1 -p AODV -e 116 -c 2 -a 0 -i 0 -k RTR
r -t 0.029221768 -s 27 -d -1 -p AODV -e 116 -c 2 -a 0 -i 0 -k RTR
r -t 0.029221857 -s 38 -d -1 -p AODV -e 116 -c 2 -a 0 -i 0 -k RTR
+ -t 0.030678819 -s 21 -d -1 -p AODV -e 116 -c 2 -a 0 -i 0 -k RTR 
- -t 0.030678819 -s 21 -d -1 -p AODV -e 116 -c 2 -a 0 -i 0 -k RTR
h -t 0.030678819 -s 21 -d -1 -p AODV -e 116 -c 2 -a 0 -i 0 -k RTR
r -t 0.030763543 -s 11 -d -1 -p AODV -e 116 -c 2 -a 0 -i 0 -k RTR
r -t 0.030763552 -s 28 -d -1 -p AODV -e 116 -c 2 -a 0 -i 0 -k RTR
r -t 0.030763718 -s 39 -d -1 -p AODV -e 116 -c 2 -a 0 -i 0 -k RTR
r -t 0.030763769 -s 29 -d -1 -p AODV -e 116 -c 2 -a 0 -i 0 -k RTR
r -t 0.030763769 -s 23 -d -1 -p AODV -e 116 -c 2 -a 0 -i 0 -k RTR
r -t 0.030763804 -s 21 -d -1 -p AODV -e 116 -c 2 -a 0 -i 0 -k RTR
r -t 0.030763902 -s 4 -d -1 -p AODV -e 116 -c 2 -a 0 -i 0 -k RTR
r -t 0.030763921 -s 27 -d -1 -p AODV -e 116 -c 2 -a 0 -i 0 -k RTR
r -t 0.030763932 -s 17 -d -1 -p AODV -e 116 -c 2 -a 0 -i 0 -k RTR
r -t 0.030764090 -s 18 -d -1 -p AODV -e 116 -c 2 -a 0 -i 0 -k RTR
r -t 0.030764122 -s 54 -d -1 -p AODV -e 116 -c 2 -a 0 -i 0 -k RTR
r -t 0.030764148 -s 44 -d -1 -p AODV -e 116 -c 2 -a 0 -i 0 -k RTR
+ -t 0.030801618 -s 4 -d -1 -p AODV -e 116 -c 2 -a 0 -i 0 -k RTR 
- -t 0.030801618 -s 4 -d -1 -p AODV -e 116 -c 2 -a 0 -i 0 -k RTR
h -t 0.030801618 -s 4 -d -1 -p AODV -e 116 -c 2 -a 0 -i 0 -k RTR
r -t 0.032054185 -s 7 -d -1 -p AODV -e 116 -c 2 -a 0 -i 0 -k RTR
r -t 0.032054304 -s 47 -d -1 -p AODV -e 116 -c 2 -a 0 -i 0 -k RTR
r -t 0.032054379 -s 16 -d -1 -p AODV -e 116 -c 2 -a 0 -i 0 -k RTR
r -t 0.032054577 -s 53 -d -1 -p AODV -e 116 -c 2 -a 0 -i 0 -k RTR
r -t 0.032054592 -s 52 -d -1 -p AODV -e 116 -c 2 -a 0 -i 0 -k RTR
r -t 0.032054602 -s 46 -d -1 -p AODV -e 116 -c 2 -a 0 -i 0 -k RTR
r -t 0.032054664 -s 19 -d -1 -p AODV -e 116 -c 2 -a 0 -i 0 -k RTR
r -t 0.032054872 -s 50 -d -1 -p AODV -e 116 -c 2 -a 0 -i 0 -k RTR
r -t 0.032305758 -s 39 -d -1 -p AODV -e 116 -c 2 -a 0 -i 0 -k RTR
r -t 0.032305776 -s 40 -d -1 -p AODV -e 116 -c 2 -a 0 -i 0 -k RTR
r -t 0.032305854 -s 23 -d -1 -p AODV -e 116 -c 2 -a 0 -i 0 -k RTR
r -t 0.032305927 -s 11 -d -1 -p AODV -e 116 -c 2 -a 0 -i 0 -k RTR
r -t 0.032305943 -s 27 -d -1 -p AODV -e 116 -c 2 -a 0 -i 0 -k RTR
r -t 0.032305994 -s 21 -d -1 -p AODV -e 116 -c 2 -a 0 -i 0 -k RTR
r -t 0.032306027 -s 29 -d -1 -p AODV -e 116 -c 2 -a 0 -i 0 -k RTR
r -t 0.032306143 -s 4 -d -1 -p AODV -e 116 -c 2 -a 0 -i 0 -k RTR
r -t 0.032306170 -s 44 -d -1 -p AODV -e 116 -c 2 -a 0 -i 0 -k RTR
r -t 0.032306340 -s 17 -d -1 -p AODV -e 116 -c 2 -a 0 -i 0 -k RTR
+ -t 0.032419961 -s 38 -d -1 -p AODV -e 116 -c 2 -a 0 -i 0 -k RTR 
- -t 0.032419961 -s 38 -d -1 -p AODV -e 116 -c 2 -a 0 -i 0 -k RTR
h -t 0.032419961 -s 38 -d -1 -p AODV -e 116 -c 2 -a 0 -i 0 -k RTR
+ -t 0.033217118 -s 19 -d -1 -p AODV -e 116 -c 2 -a 0 -i 0 -k RTR 
- -t 0.033217118 -s 19 -d -1 -p AODV -e 116 -c 2 -a 0 -i 0 -k RTR
h -t 0.033217118 -s 19 -d -1 -p AODV -e 116 -c 2 -a 0 -i 0 -k RTR
r -t 0.033636729 -s 46 -d -1 -p AODV -e 116 -c 2 -a 0 -i 0 -k RTR
r -t 0.033636907 -s 50 -d -1 -p AODV -e 116 -c 2 -a 0 -i 0 -k RTR
r -t 0.033636985 -s 35 -d -1 -p AODV -e 116 -c 2 -a 0 -i 0 -k RTR
r -t 0.033637088 -s 26 -d -1 -p AODV -e 116 -c 2 -a 0 -i 0 -k RTR
r -t 0.033637177 -s 7 -d -1 -p AODV -e 116 -c 2 -a 0 -i 0 -k RTR
r -t 0.033637212 -s 16 -d -1 -p AODV -e 116 -c 2 -a 0 -i 0 -k RTR
r -t 0.033637303 -s 47 -d -1 -p AODV -e 116 -c 2 -a 0 -i 0 -k RTR
r -t 0.034048316 -s 21 -d -1 -p AODV -e 116 -c 2 -a 0 -i 0 -k RTR
r -t 0.034048513 -s 38 -d -1 -p AODV -e 116 -c 2 -a 0 -i 0 -k RTR
r -t 0.034048557 -s 11 -d -1 -p AODV -e 116 -c 2 -a 0 -i 0 -k RTR
r -t 0.034048704 -s 17 -d -1 -p AODV -e 116 -c 2 -a 0 -i 0 -k RTR
r -t 0.034048716 -s 40 -d -1 -p AODV -e 116 -c 2 -a 0 -i 0 -k RTR
r -t 0.034048733 -s 28 -d -1 -p AODV -e 116 -c 2 -a 0 -i 0 -k RTR
r -t 0.034048748 -s 27 -d -1 -p AODV -e 116 -c 2 -a 0 -i 0 -k RTR
r -t 0.034048882 -s 44 -d -1 -p AODV -e 116 -c 2 -a 0 -i 0 -k RTR
r -t 0.034048891 -s 22 -d -1 -p AODV -e 116 -c 2 -a 0 -i 0 -k RTR
r -t 0.034048925 -s 39 -d -1 -p AODV -e 116 -c 2 -a 0 -i 0 -k RTR
r -t 0.035530692 -s 11 -d -1 -p AODV -e 116 -c 2 -a 0 -i 0 -k RTR
r -t 0.035530753 -s 27 -d -1 -p AODV -e 116 -c 2 -a 0 -i 0 -k RTR
r -t 0.035530757 -s 28 -d -1 -p AODV -e 116 -c 2 -a 0 -i 0 -k RTR
r -t 0.035530792 -s 40 -d -1 -p AODV -e 116 -c 2 -a 0 -i 0 -k RTR
r -t 0.035530938 -s 39 -d -1 -p AODV -e 116 -c 2 -a 0 -i 0 -k RTR
r -t 0.035530958 -s 22 -d -1 -p AODV -e 116 -c 2 -a 0 -i 0 -k RTR
r -t 0.035531014 -s 25 -d -1 -p AODV -e 116 -c 2 -a 0 -i 0 -k RTR
r -t 0.035531094 -s 59 -d -1 -p AODV -e 116 -c 2 -a 0 -i 0 -k RTR
r -t 0.035603738 -s 3 -d -1 -p AODV -e 116 -c 2 -a 0 -i 0 -k RTR
r -t 0.035604038 -s 2 -d -1 -p AODV -e 116 -c 2 -a 0 -i 0 -k RTR
r -t 0.035604235 -s 35 -d -1 -p AODV -e 116 -c 2 -a 0 -i 0 -k RTR
r -t 0.035604350 -s 50 -d -1 -p AODV -e 116 -c 2 -a 0 -i 0 -k RTR
r -t 0.035604365 -s 5 -d -1 -p AODV -e 116 -c 2 -a 0 -i 0 -k RTR
r -t 0.036023720 -s 52 -d -1 -p AODV -e 116 -c 2 -a 0 -i 0 -k RTR
r -t 0.036024256 -s 31 -d -1 -p AODV -e 116 -c 2 -a 0 -i 0 -k RTR
r -t 0.036024390 -s 14 -d -1 -p AODV -e 116 -c 2 -a 0 -i 0 -k RTR
+ -t 0.036580163 -s 23 -d -1 -p AODV -e 116 -c 2 -a 0 -i 0 -k RTR 
- -t 0.036580163 -s 23 -d -1 -p AODV -e 116 -c 2 -a 0 -i 0 -k RTR
h -t 0.036580163 -s 23 -d -1 -p AODV -e 116 -c 2 -a 0 -i 0 -k RTR
+ -t 0.037241887 -s 27 -d -1 -p AODV -e 116 -c 2 -a 0 -i 0 -k RTR 
- -t 0.037241887 -s 27 -d -1 -p AODV -e 116 -c 2 -a 0 -i 0 -k RTR
h -t 0.037241887 -s 27 -d -1 -p AODV -e 116 -c 2 -a 0 -i 0 -k RTR
+ -t 0.037399407 -s 44 -d -1 -p AODV -e 116 -c 2 -a 0 -i 0 -k RTR 
- -t 0.037399407 -s 44 -d -1 -p AODV -e 116 -c 2 -a 0 -i 0 -k RTR
h -t 0.037399407 -s 44 -d -1 -p AODV -e 116 -c 2 -a 0 -i 0 -k RTR
r -t 0.037477949 -s 38 -d -1 -p AODV -e 116 -c 2 -a 0 -i 0 -k RTR
r -t 0.037477966 -s 1 -d -1 -p AODV -e 116 -c 2 -a 0 -i 0 -k RTR
r -t 0.037477987 -s 25 -d -1 -p AODV -e 116 -c 2 -a 0 -i 0 -k RTR
r -t 0.037477988 -s 58 -d -1 -p AODV -e 116 -c 2 -a 0 -i 0 -k RTR
r -t 0.037478047 -s 54 -d -1 -p AODV -e 116 -c 2 -a 0 -i 0 -k RTR
r -t 0.037478079 -s 18 -d -1 -p AODV -e 116 -c 2 -a 0 -i 0 -k RTR
r -t 0.037478095 -s 57 -d -1 -p AODV -e 116 -c 2 -a 0 -i 0 -k RTR
r -t 0.037478120 -s 22 -d -1 -p AODV -e 116 -c 2 -a 0 -i 0 -k RTR
r -t 0.037478182 -s 13 -d -1 -p AODV -e 116 -c 2 -a 0 -i 0 -k RTR
r -t 0.037490052 -s 30 -d -1 -p AODV -e 116 -c 2 -a 0 -i 0 -k RTR
r -t 0.037490168 -s 3 -d -1 -p AODV -e 116 -c 2 -a 0 -i 0 -k RTR
r -t 0.037490358 -s 2 -d -1 -p AODV -e 116 -c 2 -a 0 -i 0 -k RTR
r -t 0.037490502 -s 35 -d -1 -p AODV -e 116 -c 2 -a 0 -i 0 -k RTR
r -t 0.037490659 -s 50 -d -1 -p AODV -e 116 -c 2 -a 0 -i 0 -k RTR
+ -t 0.039183487 -s 25 -d -1 -p AODV -e 116 -c 2 -a 0 -i 0 -k RTR 
- -t 0.039183487 -s 25 -d -1 -p AODV -e 116 -c 2 -a 0 -i 0 -k RTR
h -t 0.039183487 -s 25 -d -1 -p AODV -e 116 -c 2 -a 0 -i 0 -k RTR
+ -t 0.039241604 -s 31 -d -1 -p AODV -e 116 -c 2 -a 0 -i 0 -k RTR 
- -t 0.039241604 -s 31 -d -1 -p AODV -e 116 -c 2 -a 0 -i 0 -k RTR
h -t 0.039241604 -s 31 -d -1 -p AODV -e 116 -c 2 -a 0 -i 0 -k RTR
r -t 0.039617784 -s 44 -d -1 -p AODV -e 116 -c 2 -a 0 -i 0 -k RTR
r -t 0.039617947 -s 28 -d -1 -p AODV -e 116 -c 2 -a 0 -i 0 -k RTR
r -t 0.039617974 -s 39 -d -1 -p AODV -e 116 -c 2 -a 0 -i 0 -k RTR
r -t 0.039617993 -s 21 -d -1 -p AODV -e 116 -c 2 -a 0 -i 0 -k RTR
r -t 0.039618088 -s 23 -d -1 -p AODV -e 116 -c 2 -a 0 -i 0 -k RTR
r -t 0.039618148 -s 40 -d -1 -p AODV -e 116 -c 2 -a 0 -i 0 -k RTR
r -t 0.039618161 -s 4 -d -1 -p AODV -e 116 -c 2 -a 0 -i 0 -k RTR
r -t 0.039618210 -s 11 -d -1 -p AODV -e 116 -c 2 -a 0 -i 0 -k RTR
r -t 0.039618263 -s 12 -d -1 -p AODV -e 116 -c 2 -a 0 -i 0 -k RTR
+ -t 0.039778235 -s 12 -d -1 -p AODV -e 116 -c 2 -a 0 -i 0 -k RTR 
- -t 0.039778235 -s 12 -d -1 -p AODV -e 116 -c 2 -a 0 -i 0 -k RTR
h -t 0.039778235 -s 12 -d -1 -p AODV -e 116 -c 2 -a 0 -i 0 -k RTR
+ -t 0.040111308 -s 50 -d 5 -p AODV -e 48 -c 2 -a 0 -i 0 -k RTR 
- -t 0.040111308 -s 50 -d 5 -p AODV -e 48 -c 2 -a 0 -i 0 -k RTR
h -t 0.040111308 -s 50 -d 5 -p AODV -e 48 -c 2 -a 0 -i 0 -k RTR
+ -t 0.041005789 -s 22 -d -1 -p AODV -e 116 -c 2 -a 0 -i 0 -k RTR 
- -t 0.041005789 -s 22 -d -1 -p AODV -e 116 -c 2 -a 0 -i 0 -k RTR
h -t 0.041005789 -s 22 -d -1 -p AODV -e 116 -c 2 -a 0 -i 0 -k RTR
r -t 0.041160011 -s 27 -d -1 -p AODV -e 116 -c 2 -a 0 -i 0 -k RTR
r -t 0.041160375 -s 21 -d -1 -p AODV -e 116 -c 2 -a 0 -i 0 -k RTR
r -t 0.041160400 -s 39 -d -1 -p AODV -e 116 -c 2 -a 0 -i 0 -k RTR
r -t 0.041160401 -s 28 -d -1 -p AODV -e 116 -c 2 -a 0 -i 0 -k RTR
r -t 0.041160483 -s 12 -d -1 -p AODV -e 116 -c 2 -a 0 -i 0 -k RTR
r -t 0.041160503 -s 23 -d -1 -p AODV -e 116 -c 2 -a 0 -i 0 -k RTR
r -t 0.041160523 -s 4 -d -1 -p AODV -e 116 -c 2 -a 0 -i 0 -k RTR
+ -t 0.042420530 -s 20 -d 2 -p AODV -e 48 -c 2 -a 0 -i 0 -k RTR 
- -t 0.042420530 -s 20 -d 2 -p AODV -e 48 -c 2 -a 0 -i 0 -k RTR
h -t 0.042420530 -s 20 -d 2 -p AODV -e 48 -c 2 -a 0 -i 0 -k RTR
r -t 0.042987117 -s 25 -d -1 -p AODV -e 116 -c 2 -a 0 -i 0 -k RTR
r -t 0.042987361 -s 13 -d -1 -p AODV -e 116 -c 2 -a 0 -i 0 -k RTR
+ -t 0.043631661 -s 57 -d -1 -p AODV -e 116 -c 2 -a 0 -i 0 -k RTR 
- -t 0.043631661 -s 57 -d -1 -p AODV -e 116 -c 2 -a 0 -i 0 -k RTR
h -t 0.043631661 -s 57 -d -1 -p AODV -e 116 -c 2 -a 0 -i 0 -k RTR
r -t 0.044669322 -s 22 -d -1 -p AODV -e 116 -c 2 -a 0 -i 0 -k RTR
r -t 0.044669431 -s 13 -d -1 -p AODV -e 116 -c 2 -a 0 -i 0 -k RTR
r -t 0.044669619 -s 38 -d -1 -p AODV -e 116 -c 2 -a 0 -i 0 -k RTR
r -t 0.044669737 -s 59 -d -1 -p AODV -e 116 -c 2 -a 0 -i 0 -k RTR
+ -t 0.044836965 -s 14 -d -1 -p AODV -e 116 -c 2 -a 0 -i 0 -k RTR 
- -t 0.044836965 -s 14 -d -1 -p AODV -e 116 -c 2 -a 0 -i 0 -k RTR
h -t 0.044836965 -s 14 -d -1 -p AODV -e 116 -c 2 -a 0 -i 0 -k RTR
+ -t 0.045374466 -s 13 -d -1 -p AODV -e 116 -c 2 -a 0 -i 0 -k RTR 
- -t 0.045374466 -s 13 -d -1 -p AODV -e 116 -c 2 -a 0 -i 0 -k RTR
h -t 0.045374466 -s 13 -d -1 -p AODV -e 116 -c 2 -a 0 -i 0 -k RTR
r -t 0.047077854 -s 39 -d -1 -p AODV -e 116 -c 2 -a 0 -i 0 -k RTR
r -t 0.047078035 -s 28 -d -1 -p AODV -e 116 -c 2 -a 0 -i 0 -k RTR
r -t 0.047078265 -s 27 -d -1 -p AODV -e 116 -c 2 -a 0 -i 0 -k RTR
r -t 0.047078375 -s 12 -d -1 -p AODV -e 116 -c 2 -a 0 -i 0 -k RTR
r -t 0.047078453 -s 44 -d -1 -p AODV -e 116 -c 2 -a 0 -i 0 -k RTR
r -t 0.047107003 -s 24 -d -1 -p AODV -e 116 -c 2 -a 0 -i 0 -k RTR
r -t 0.047107037 -s 10 -d -1 -p AODV -e 116 -c 2 -a 0 -i 0 -k RTR
r -t 0.047107059 -s 36 -d -1 -p AODV -e 116 -c 2 -a 0 -i 0 -k RTR
r -t 0.047644694 -s 49 -d -1 -p AODV -e 116 -c 2 -a 0 -i 0 -k RTR
r -t 0.047645083 -s 43 -d -1 -p AODV -e 116 -c 2 -a 0 -i 0 -k RTR
r -t 0.047645162 -s 56 -d -1 -p AODV -e 116 -c 2 -a 0 -i 0 -k RTR
r -t 0.047645220 -s 19 -d -1 -p AODV -e 116 -c 2 -a 0 -i 0 -k RTR
r -t 0.047645229 -s 14 -d -1 -p AODV -e 116 -c 2 -a 0 -i 0 -k RTR
r -t 0.047645230 -s 37 -d -1 -p AODV -e 116 -c 2 -a 0 -i 0 -k RTR
r -t 0.047645235 -s 16 -d -1 -p AODV -e 116 -c 2 -a 0 -i 0 -k RTR
r -t 0.047645284 -s 52 -d -1 -p AODV -e 116 -c 2 -a 0 -i 0 -k RTR
r -t 0.047645373 -s 34 -d -1 -p AODV -e 116 -c 2 -a 0 -i 0 -k RTR
+ -t 0.047694038 -s 36 -d -1 -p AODV -e 116 -c 2 -a 0 -i 0 -k RTR 
- -t 0.047694038 -s 36 -d -1 -p AODV -e 116 -c 2 -a 0 -i 0 -k RTR
h -t 0.047694038 -s 36 -d -1 -p AODV -e 116 -c 2 -a 0 -i 0 -k RTR
r -t 0.049207585 -s 37 -d -1 -p AODV -e 116 -c 2 -a 0 -i 0 -k RTR
r -t 0.049207615 -s 34 -d -1 -p AODV -e 116 -c 2 -a 0 -i 0 -k RTR
r -t 0.049207749 -s 43 -d -1 -p AODV -e 116 -c 2 -a 0 -i 0 -k RTR
r -t 0.049207863 -s 31 -d -1 -p AODV -e 116 -c 2 -a 0 -i 0 -k RTR
r -t 0.049207894 -s 49 -d -1 -p AODV -e 116 -c 2 -a 0 -i 0 -k RTR
r -t 0.049207987 -s 19 -d -1 -p AODV -e 116 -c 2 -a 0 -i 0 -k RTR
r -t 0.049286065 -s 10 -d -1 -p AODV -e 116 -c 2 -a 0 -i 0 -k RTR
r -t 0.049286386 -s 24 -d -1 -p AODV -e 116 -c 2 -a 0 -i 0 -k RTR
r -t 0.049286631 -s 13 -d -1 -p AODV -e 116 -c 2 -a 0 -i 0 -k RTR
+ -t 0.049375310 -s 24 -d -1 -p AODV -e 116 -c 2 -a 0 -i 0 -k RTR 
- -t 0.049375310 -s 24 -d -1 -p AODV -e 116 -c 2 -a 0 -i 0 -k RTR
h -t 0.049375310 -s 24 -d -1 -p AODV -e 116 -c 2 -a 0 -i 0 -k RTR